file 8970181 1701701514                                         
version 3
run General-0-20231204-09:51:48-39059
attr configname General
attr datetime 20231204-09:51:48
attr datetimef 20231204-095148
attr experiment General
attr inifile omnetpp.ini
attr iterationvars ""
attr iterationvarsd ""
attr iterationvarsf ""
attr measurement ""
attr network Network
attr processid 39059
attr repetition 0
attr replication #0
attr resultdir results
attr runnumber 0
attr seedset 0
config network Network
config sim-time-limit 24h
config **.numJobs -1
config **.source.interArrivalTime exponential(1s)
config **.queue.serviceTime exponential(0.981s)

vector 0 Network.queue queueLength:vector ETV
attr interpolationmode sample-hold
attr recordingmode vector
attr title "queue length"
vector 1 Network.sink lifeTime:vector ETV
attr interpolationmode none
attr recordingmode vector
attr title "lifetime of arrived jobs"
attr unit s
0	855 952405 0 67268 0 16711.906856763698 32768 0 201 1841760 190063068
1	953260 1392141 6 131146 2.02794457821 32573.225395147328 32768 0.002048416647 288.57513859593 3733359.0599668 672074624.34911
0	2345401 1020802 67269 133044 16712.064466387163 33032.374623725181 32768 0 297 5671428 1161948480
0	3366203 1006962 133046 199784 33032.46779452658 49559.296144455536 32768 0 94 988956 42115228
1	4373165 1429538 131150 262380 32575.308897834799 65081.657938518874 32768 0.001656929019 127.44208479381 1188977.4364622 62492434.952309
0	5802703 1010726 199786 266036 49559.865335293107 66013.122998386796 32768 0 149 1550618 108722916
0	6813429 1015629 266037 332475 66013.469125957407 82629.807300196943 32768 0 235 2205978 263481524
0	7829058 214797 332478 347120 82630.031672596802 86399.044576398666 7022 0 53 121879 3040183
1	8043855 926325 262384 347118 65083.152730498064 86398.258955039144 21237 0.001879959568 226.61295953221 1295949.7632261 148498005.81883

