version 3
run General-0-20231023-14:47:09-24000
attr configname General
attr datetime 20231023-14:47:09
attr datetimef 20231023-144709
attr experiment General
attr inifile omnetpp.ini
attr iterationvars ""
attr iterationvarsd ""
attr iterationvarsf ""
attr measurement ""
attr network Network
attr processid 24000
attr repetition 0
attr replication #0
attr resultdir results
attr runnumber 0
attr seedset 0
config network Network
config sim-time-limit 5h
config **.numJobs 20
config **.source.interArrivalTime uniform(1s,5s)
config **.queue.serviceTime uniform(1s,10s)

vector 0 Network.queue queueLength:vector ETV
attr interpolationmode sample-hold
attr recordingmode vector
attr title "queue length"
vector 1 Network.sink lifeTime:vector ETV
attr interpolationmode none
attr recordingmode vector
attr title "lifetime of arrived jobs"
attr unit s
0	0	0	0
0	4	6.566633474773	1
0	5	10.631959293961	0
0	8	10.943696451133	1
0	10	15.375478930531	2
0	11	17.056829627362	1
0	14	18.555011640062	2
0	16	21.249630827216	3
0	18	24.743885612806	4
0	19	25.682095262679	3
0	22	28.327462073175	4
0	23	30.141530636689	3
0	26	31.077810913084	4
0	27	33.819342083987	3
0	29	35.329758865517	2
0	32	35.64490292011	3
0	34	37.735528098179	4
0	36	40.269294183461	5
0	38	43.179954630082	6
0	39	45.002723742035	5
0	42	47.346854763796	6
0	44	50.462434449924	7
0	45	53.312242280218	6
0	48	53.382343135534	7
0	50	55.953482308185	8
0	51	59.424643354017	7
0	54	60.655868841095	8
0	56	61.940013075939	9
0	58	64.289597722462	10
0	60	67.949352273477	9
0	62	74.782899162492	8
0	64	75.964864754576	7
0	66	80.279038590837	6
0	68	88.7726171764	5
0	70	98.387013565275	4
0	72	106.390424377277	3
0	74	108.653581374084	2
0	76	117.483690681394	1
0	78	126.314475940998	0
1	6	10.631960293961	7.436706284744
1	12	17.056830627362	10.490198152589
1	20	25.682096262679	14.738400811546
1	24	30.141531636689	14.766053706158
1	28	33.819343083987	15.264332443925
1	30	35.329759865517	14.080130038301
1	40	45.002724742035	20.258840129229
1	46	53.312243280218	24.984782207043
1	52	59.424644354017	28.346834440933
1	61	67.949353273477	32.304451353367
1	63	74.782900162492	37.047373064313
1	65	75.964865754576	35.695572571115
1	67	80.279039590837	37.099085960755
1	69	88.7726181764	41.425764412604
1	71	98.387014565275	47.924581115351
1	73	106.390425377277	53.008083241743
1	75	108.653582374084	52.700101065899
1	77	117.483691681394	56.827823840299
1	79	126.314476940998	64.374464865059
1	81	136.122042027054	71.832445304592

