file 9039735 1698706468                                         
version 3
run General-0-20231030-18:53:15-36754
attr configname General
attr datetime 20231030-18:53:15
attr datetimef 20231030-185315
attr experiment General
attr inifile omnetpp.ini
attr iterationvars ""
attr iterationvarsd ""
attr iterationvarsf ""
attr measurement ""
attr network Network
attr processid 36754
attr repetition 0
attr replication #0
attr resultdir results
attr runnumber 0
attr seedset 0
config network Network
config sim-time-limit 24h
config **.numJobs -1
config **.source.interArrivalTime exponential(1s)
config **.queue.serviceTime exponential(1s)
config **.queue.packetCapacity 4

vector 0 Network.queue queueLength:vector ETV
attr interpolationmode sample-hold
attr recordingmode vector
attr title "queue length"
vector 1 Network.sink lifeTime:vector ETV
attr interpolationmode none
attr recordingmode vector
attr title "lifetime of arrived jobs"
attr unit s
0	884 953911 0 66004 0 16386.437214439763 32768 0 135 2004558 151696340
1	954795 1393519 6 131256 2.051807262613 32763.27450300726 32768 0.000777011614 134.53850382502 1984680.292643 153600312.29719
0	2348314 997223 66006 131927 16387.307768476691 32929.163354408408 32768 0 158 1969696 158209880
0	3345537 1026655 131929 198076 32929.796645969399 49409.151650464649 32768 0 212 3265984 420566056
1	4372192 1432852 131258 262394 32763.602925053986 65419.536635511402 32768 0.00113491905 221.85661423004 2719334.3512056 308022954.95618
0	5805044 1019307 198078 263724 49409.175321641743 65754.167993583014 32768 0 168 2206142 200125216
0	6824351 1038806 263726 329259 65754.544705431549 82185.695966607536 32768 19 293 5724514 1135622836
0	7863157 263009 329261 345849 82185.764657671267 86399.74165806673 8295 40 168 1006347 128368915
1	8126166 913568 262398 345850 65420.354250937461 86399.74165906673 20866 20.219295651959 300.36071517021 3459238.524933 656735816.28411

